
Running Job 1 of 1 benzene_resp.in
qchem benzene_resp.in_1689023.0 /tmp/qchem1689023/ 1
/global/common/software/nersc9/qchem/6.2.1-cpu/exe/qcprog.exe_s benzene_resp.in_1689023.0 /tmp/qchem1689023/
                  Welcome to Q-Chem
     A Quantum Leap Into The Future Of Chemistry


 Q-Chem 6.2, Q-Chem, Inc., Pleasanton, CA (2024)

 License issued to: National Energy Research Scientific Computing Center (site)

 E. Epifanovsky,  A. T. B. Gilbert,  Xintian Feng,  Joonho Lee,  Yuezhi Mao,  
 N. Mardirossian,  P. Pokhilko,  A. White,  M. Wormit,  M. P. Coons,  
 A. L. Dempwolff,  Zhengting Gan,  D. Hait,  P. R. Horn,  L. D. Jacobson,  
 I. Kaliman,  J. Kussmann,  A. W. Lange,  Ka Un Lao,  D. S. Levine,  Jie Liu,  
 S. C. McKenzie,  A. F. Morrison,  K. D. Nanda,  F. Plasser,  D. R. Rehn,  
 M. L. Vidal,  Zhi-Qiang You,  Ying Zhu,  Huseyin Aksu,  B. Alam,  
 B. Albrecht,  A. Aldossary,  E. Alguire,  J. H. Andersen,  
 J. E. Arias-Martinez,  V. Athavale,  D. Barton,  K. Begam,  A. Behn,  
 N. Bellonzi,  Y. A. Bernard,  E. J. Berquist,  H. Burton,  A. Carreras,  
 K. Carter-Fenk,  Mathew Chow,  Romit Chakraborty,  Chandrima Chakravarty,  
 Junhan Chen,  A. D. Chien,  K. D. Closser,  V. Cofer-Shabica,  L. Cunha,  
 S. Dasgupta,  Jia Deng,  Joseph Dickinson,  M. de Wergifosse,  
 M. Diedenhofen,  Hainam Do,  Wenjie Dou,  S. Ehlert,  Po-Tung Fang,  
 S. Fatehi,  Qingguo Feng,  Jonathan Fetherolf,  T. Friedhoff,  
 Thomas Froitzheim,  Sarai Folkestad,  B. Ganoe,  J. Gayvert,  Qinghui Ge,  
 G. Gidofalvi,  M. Gimferrer,  M. Goldey,  Montgomery Gray,  J. Gomes,  
 C. Gonzalez-Espinoza,  S. Gulania,  A. Gunina,  J. A. Gyamfi,  
 M. W. D. Hanson-Heine,  P. H. P. Harbach,  A. W. Hauser,  M. F. Herbst,  
 M. Hernandez Vera,  M. Hodecker,  Z. C. Holden,  S. Houck,  Xunkun Huang,  
 Kerwin Hui,  B. C. Huynh,  K. Ikeda,  M. Ivanov,  Nayanthara K. Jayadev,  
 Hyunjun Ji,  Zuxin Jin,  Hanjie Jiang,  Subrata Jana,  B. Kaduk,  
 S. Kaehler,  R. Kang,  K. Khistyaev,  Jaehoon Kim,  Yongbin Kim,  
 P. Klunzinger,  Z. Koczor-Benda,  Joong Hoon Koh,  D. Kosenkov,  
 Saikiran Kotaru,  L. Koulias,  T. Kowalczyk,  C. M. Krauter,  K. Kue,  
 A. Kunitsa,  T. Kus,  A. Landau,  K. V. Lawler,  D. Lefrancois,  S. Lehtola,  
 Rain Li,  Shaozhi Li,  Tao E. Li,  Yi-Pei Li,  Jiashu Liang,  M. Liebenthal,  
 Hung-Hsuan Lin,  You-Sheng Lin,  Fenglai Liu,  Kuan-Yu Liu,  Xiao Liu,  
 M. Loipersberger,  A. Luenser,  C. Malbon,  Aniket Mandal,  Manisha,  
 A. Manjanath,  P. Manohar,  E. Mansoor,  S. F. Manzer,  Shan-Ping Mao,  
 A. V. Marenich,  T. Markovich,  S. Mason,  F. Matz,  S. A. Maurer,  
 Samuel May,  Alexandra McIsaac,  P. F. McLaughlin,  M. F. S. J. Menger,  
 J.-M. Mewes,  S. A. Mewes,  P. Morgante,  Mohammad Mostafanejad,  
 Madhubani Mukherjee,  J. W. Mullinax,  Quyen Nguyen,  Avik Kumar Ojha,  
 K. J. Oosterbaan,  Eno Paenurk,  Xiaoliang Pan,  G. Paran,  V. Parravicini,  
 Alexander C. Paul,  Suranjan K. Paul,  F. Pavosevic,  Zheng Pei,  S. Prager,  
 E. I. Proynov,  E. Ramos,  B. Rana,  A. E. Rask,  A. Rettig,  R. M. Richard,  
 F. Rob,  E. Rossomme,  T. Scheele,  M. Scheurer,  M. Schneider,  
 P. E. Schneider,  Tim K. Schramm,  N. Sergueev,  S. M. Sharada,  
 Hengyuan Shen,  W. Skomorowski,  D. W. Small,  C. J. Stein,  
 Alistair J. Sterling,  Yingli Su,  Yu-Chuan Su,  E. J. Sundstrom,  
 J. Talbot,  Zhen Tao,  J. Thirman,  Hung-Yi Tsai,  T. Tsuchimochi,  
 N. M. Tubman,  C. Utku,  S. P. Veccham,  O. Vydrov,  Rahel Weiss,  
 J. Wenzel,  Jonathan Wong,  J. Witte,  H. Wu,  Yanze Wu,  A. Yamada,  
 Chou-Hsun Yang,  Kun Yao,  S. Yeganeh,  S. R. Yost,  Qi Yu,  A. Zech,  
 F. Zeller,  Chongxiao Zhao,  Igor Ying Zhang,  Xing Zhang,  Yu Zhang,  
 D. Zuev,  A. Aspuru-Guzik,  A. T. Bell,  N. A. Besley,  K. B. Bravaya,  
 B. R. Brooks,  D. Casanova,  Jeng-Da Chai,  Hsing-Ta Chen,  S. Coriani,  
 C. J. Cramer,  A. E. DePrince, III,  R. A. DiStasio Jr.,  A. Dreuw,  
 B. D. Dunietz,  T. R. Furlani,  W. A. Goddard III,  S. Grimme,  
 S. Hammes-Schiffer,  T. Head-Gordon,  W. J. Hehre,  Chao-Ping Hsu,  
 T.-C. Jagau,  Yousung Jung,  A. Klamt,  Jing Kong,  D. S. Lambrecht,  
 Xiangyuan Li,  WanZhen Liang,  N. J. Mayhall,  C. W. McCurdy,  J. B. Neaton,  
 T. Neudecker,  C. Ochsenfeld,  J. A. Parkhill,  R. Peverati,  
 V. A. Rassolov,  Haisheng Ren,  Yihan Shao,  L. V. Slipchenko,  
 R. P. Steele,  J. E. Subotnik,  A. J. W. Thom,  A. Tkatchenko,  
 D. G. Truhlar,  T. Van Voorhis,  Fan Wang,  T. A. Wesolowski,  K. B. Whaley,  
 H. L. Woodcock III,  P. M. Zimmerman,  S. Faraji,  P. M. W. Gill,  
 M. Head-Gordon,  J. M. Herbert,  A. I. Krylov

 Contributors to earlier versions of Q-Chem not listed above: 
 R. D. Adamson,  B. Austin,  R. Baer,  J. Baker,  G. J. O. Beran,  
 K. Brandhorst,  S. T. Brown,  E. F. C. Byrd,  Arup K. Chakraborty,  
 G. K. L. Chan,  Chun-Min Chang,  Yunqing Chen,  C.-L. Cheng,  
 Siu Hung Chien,  D. M. Chipman,  D. L. Crittenden,  H. Dachsel,  
 R. J. Doerksen,  A. D. Dutoi,  R. G. Edgar,  J. Fosso-Tande,  
 L. Fusti-Molnar,  D. Ghosh,  A. Ghysels,  A. Golubeva-Zadorozhnaya,  
 J. Gonthier,  M. S. Gordon,  S. R. Gwaltney,  G. Hawkins,  J. E. Herr,  
 A. Heyden,  S. Hirata,  E. G. Hohenstein,  G. Kedziora,  F. J. Keil,  
 C. Kelley,  Jihan Kim,  R. A. King,  R. Z. Khaliullin,  P. P. Korambath,  
 W. Kurlancheek,  A. Laurent,  A. M. Lee,  M. S. Lee,  S. V. Levchenko,  
 Ching Yeh Lin,  D. Liotard,  E. Livshits,  R. C. Lochan,  I. Lotan,  
 L. A. Martinez-Martinez,  P. E. Maslen,  N. Nair,  D. P. O'Neill,  
 D. Neuhauser,  E. Neuscamman,  C. M. Oana,  R. Olivares-Amaya,  R. Olson,  
 T. M. Perrine,  B. Peters,  P. A. Pieniazek,  A. Prociuk,  Y. M. Rhee,  
 J. Ritchie,  M. A. Rohrdanz,  E. Rosta,  N. J. Russ,  H. F. Schaefer III,  
 M. W. Schmidt,  N. E. Schultz,  S. Sharma,  N. Shenvi,  C. D. Sherrill,  
 A. C. Simmonett,  A. Sodt,  T. Stein,  D. Stuck,  K. S. Thanthiriwatte,  
 V. Vanovschi,  L. Vogt,  Tao Wang,  A. Warshel,  M. A. Watson,  
 C. F. Williams,  Q. Wu,  X. Xu,  Jun Yang,  W. Zhang,  Yan Zhao

   Please cite Q-Chem as follows:
  "Software for the frontiers of quantum chemistry:
   An overview of developments in the Q-Chem 5 package"
   J. Chem. Phys. 155, 084801 (2021)
   https://doi.org/10.1063/5.0055522 (open access)

 Q-Chem 6.2.1 for Intel X86 EM64T Linux

 Parts of Q-Chem use Armadillo 9.900.5 (Nocturnal Misbehaviour).
 http://arma.sourceforge.net/

 Q-Chem begins on Thu Mar 19 11:32:42 2026  

 Host: login27
0

     Scratch files written to /tmp/qchem1689023//
 Sep124 |scratch|qcdevops|jenkins|workspace|build_RNUM -1
 Processing $rem in /global/common/software/nersc9/qchem/6.2.1-cpu/config/preferences:
 Processing $rem in /global/homes/e/eric6/.qchemrc:

 Checking the input file for inconsistencies... 	...done.

--------------------------------------------------------------
User input:
--------------------------------------------------------------
$molecule
0 1
C     1.2124    0.7001    0.0000
C     1.2124   -0.7001    0.0000
C     0.0000   -1.4003    0.0000
C    -1.2124   -0.7001    0.0000
C    -1.2124    0.7001    0.0000
C     0.0000    1.4003    0.0000
H     2.1569    1.2453    0.0000
H     2.1569   -1.2453    0.0000
H     0.0000   -2.4906    0.0000
H    -2.1569   -1.2453    0.0000
H    -2.1569    1.2453    0.0000
H     0.0000    2.4906    0.0000
$end

$rem
JOBTYPE = SP
METHOD = HF
BASIS = 6-31G*
RESP_CHARGES = 1
SYMMETRY_DECOMPOSITION = 0
$end
--------------------------------------------------------------
 ----------------------------------------------------------------
             Standard Nuclear Orientation (Angstroms)
    I     Atom           X                Y                Z
 ----------------------------------------------------------------
    1      C       0.7001000000    -1.2124000000    -0.0000000000
    2      C      -0.7001000000    -1.2124000000     0.0000000000
    3      C      -1.4003000000    -0.0000000000     0.0000000000
    4      C      -0.7001000000     1.2124000000     0.0000000000
    5      C       0.7001000000     1.2124000000    -0.0000000000
    6      C       1.4003000000     0.0000000000    -0.0000000000
    7      H       1.2453000000    -2.1569000000    -0.0000000000
    8      H      -1.2453000000    -2.1569000000     0.0000000000
    9      H      -2.4906000000    -0.0000000000     0.0000000000
   10      H      -1.2453000000     2.1569000000     0.0000000000
   11      H       1.2453000000     2.1569000000    -0.0000000000
   12      H       2.4906000000     0.0000000000    -0.0000000000
 ----------------------------------------------------------------
 Molecular Point Group                 D2h   NOp =  8
 Largest Abelian Subgroup              D2h   NOp =  8
 Nuclear Repulsion Energy =         202.65850153 hartrees
 There are       21 alpha and       21 beta electrons
 Requested basis set is 6-31G(d)
 There are 36 shells and 102 basis functions

 Total QAlloc Memory Limit   7470 MB
 Mega-Array Size       188 MB
 MEM_STATIC part       192 MB


                       Distance Matrix (Angstroms)
             C (  1)   C (  2)   C (  3)   C (  4)   C (  5)   C (  6)
   C (  2)  1.400200
   C (  3)  2.425200  1.400069
   C (  4)  2.800038  2.424800  1.400069
   C (  5)  2.424800  2.800038  2.425200  1.400200
   C (  6)  1.400069  2.425200  2.800600  2.425200  1.400069
   H (  7)  1.090561  2.162559  3.413417  3.890599  3.413125  2.162462
   H (  8)  2.162559  1.090561  2.162462  3.413125  3.890599  3.413417
   H (  9)  3.413280  2.162361  1.090300  2.162361  3.413280  3.890900
   H ( 10)  3.890599  3.413125  2.162462  1.090561  2.162559  3.413417
   H ( 11)  3.413125  3.890599  3.413417  2.162559  1.090561  2.162462
   H ( 12)  2.162361  3.413280  3.890900  3.413280  2.162361  1.090300
             H (  7)   H (  8)   H (  9)   H ( 10)   H ( 11)
   H (  8)  2.490600
   H (  9)  4.313834  2.490580
   H ( 10)  4.981160  4.313800  2.490580
   H ( 11)  4.313800  4.981160  4.313834  2.490600
   H ( 12)  2.490580  4.313834  4.981200  4.313834  2.490580
 
 A cutoff of  1.0D-09 yielded    630 shell pairs
 There are      5379 function pairs
 Smallest overlap matrix eigenvalue = 5.35E-04

 Scale SEOQF with 1.000000e-01/1.000000e-01/1.000000e+00

 Standard Electronic Orientation quadrupole field applied
 Nucleus-field energy     =     0.0000000058 hartrees
 Guess from superposition of atomic densities
 Warning:  Energy on first SCF cycle will be non-variational
 SAD guess density has 42.000000 electrons

 -----------------------------------------------------------------------
  General SCF calculation program by
  Eric Jon Sundstrom, Paul Horn, Yuezhi Mao, Dmitri Zuev, Alec White,
  David Stuck, Shaama M.S., Shane Yost, Joonho Lee, David Small,
  Daniel Levine, Susi Lehtola, Hugh Burton, Evgeny Epifanovsky,
  Bang C. Huynh
 -----------------------------------------------------------------------
 Hartree-Fock
 using 4 threads for integral computing
 -------------------------------------------------------
 OpenMP Integral computing Module                
 Release: version 1.0, May 2013, Q-Chem Inc. Pittsburgh 
 -------------------------------------------------------
 A restricted SCF calculation will be
 performed using DIIS
 SCF converges when DIIS error is below 1.0e-05
 ---------------------------------------
  Cycle       Energy         DIIS error
 ---------------------------------------
    1    -232.9917320515      8.31e-02  
    2    -230.6389315755      5.53e-03  
    3    -230.6967140632      1.42e-03  
    4    -230.7007676308      3.95e-04  
    5    -230.7009738435      4.37e-05  
    6    -230.7009784723      6.46e-06  Convergence criterion met
 ---------------------------------------
 SCF time:   CPU 1.81s  wall 1.00s 
 SCF   energy =  -230.70097847
 Total energy =  -230.70097847
 
 --------------------------------------------------------------
 
                    Orbital Energies (a.u.)
 --------------------------------------------------------------
 
 Alpha MOs
 -- Occupied --
-11.2360 -11.2354 -11.2354 -11.2343 -11.2343 -11.2337  -1.1396  -1.0059
 -1.0058  -0.8156  -0.8155  -0.6994  -0.6378  -0.6091  -0.5802  -0.5800
 -0.4928  -0.4880  -0.4880  -0.3287  -0.3286
 -- Virtual --
  0.1459   0.1459   0.2320   0.2915   0.2916   0.3293   0.3293   0.3330
  0.3636   0.4694   0.4694   0.4939   0.4939   0.6612   0.7372   0.7566
  0.7736   0.7747   0.7872   0.8330   0.8331   0.8432   0.8432   0.8449
  0.8450   0.9131   0.9131   0.9937   1.1091   1.1093   1.1173   1.1174
  1.1196   1.1834   1.1834   1.1996   1.2404   1.3011   1.3011   1.3845
  1.3847   1.4538   1.5176   1.6646   1.6915   1.6915   1.7642   1.7643
  1.7948   1.7949   2.0463   2.0876   2.1521   2.1632   2.2966   2.2966
  2.3853   2.3855   2.4637   2.4640   2.4662   2.4662   2.6324   2.6325
  2.6401   2.8750   2.8751   2.9916   3.0590   3.0591   3.0772   3.0773
  3.0830   3.3864   3.7728   4.5060   4.5403   4.5404   4.7530   4.7530
  5.0899
 --------------------------------------------------------------
 
          Ground-State Mulliken Net Atomic Charges

     Atom                 Charge (a.u.)
  ----------------------------------------
      1 C                    -0.200312
      2 C                    -0.200312
      3 C                    -0.200241
      4 C                    -0.200312
      5 C                    -0.200312
      6 C                    -0.200241
      7 H                     0.200266
      8 H                     0.200266
      9 H                     0.200334
     10 H                     0.200266
     11 H                     0.200266
     12 H                     0.200334
  ----------------------------------------
  Sum of atomic charges =     0.000000

  Building new vdW surfaces
         Merz-Kollman RESP Net Atomic Charges

     Atom                 Charge (a.u.)
  ----------------------------------------
      1 C                    -0.138152
      2 C                    -0.138152
      3 C                    -0.138152
      4 C                    -0.138152
      5 C                    -0.138152
      6 C                    -0.138152
      7 H                     0.138152
      8 H                     0.138152
      9 H                     0.138152
     10 H                     0.138152
     11 H                     0.138152
     12 H                     0.138152
  ----------------------------------------
  Sum of atomic charges =     0.000000

  Related Dipole Moment =     0.0000 (X  0.0000 Y  0.0000 Z  0.0000)

 -----------------------------------------------------------------
                    Cartesian Multipole Moments
 -----------------------------------------------------------------
    Charge (ESU x 10^10)
                 0.0000
    Dipole Moment (Debye)
         X       0.0000      Y       0.0000      Z      -0.0000
       Tot       0.0000
    Quadrupole Moments (Debye-Ang)
        XX     -31.3590     XY       0.0000     YY     -31.3644
        XZ      -0.0000     YZ       0.0000     ZZ     -40.0492
    Octopole Moments (Debye-Ang^2)
       XXX       0.0000    XXY      -0.0000    XYY       0.0000
       YYY      -0.0000    XXZ      -0.0000    XYZ      -0.0000
       YYZ       0.0000    XZZ       0.0000    YZZ      -0.0000
       ZZZ      -0.0000
    Hexadecapole Moments (Debye-Ang^3)
      XXXX    -267.5698   XXXY      -0.0000   XXYY     -89.1898
      XYYY      -0.0000   YYYY    -267.5432   XXXZ       0.0000
      XXYZ       0.0000   XYYZ       0.0000   YYYZ       0.0000
      XXZZ     -62.5933   XYZZ       0.0000   YYZZ     -62.5846
      XZZZ       0.0000   YZZZ       0.0000   ZZZZ     -43.3991
 -----------------------------------------------------------------
 Total job time:  1.53s(wall), 2.49s(cpu) 
 Thu Mar 19 11:32:43 2026

        *************************************************************
        *                                                           *
        *  Thank you very much for using Q-Chem.  Have a nice day.  *
        *                                                           *
        *************************************************************


